<?xml version="1.0" encoding="UTF-8"?>

<!-- generated on 2025-07-20 00:28:13 by Eclipse SUMO GUI Version 1.23.1
<sumoConfiguration xmlns:xsi="http://www.w3.org/2001/XMLSchema-instance" xsi:noNamespaceSchemaLocation="http://sumo.dlr.de/xsd/sumoConfiguration.xsd">

    <input>
        <net-file value="scenarios/competition/network.net.xml"/>
        <route-files value="scenarios/competition/routes.rou.xml"/>
        <additional-files value="scenarios/competition/additional.xml"/>
    </input>

    <output>
        <fcd-output value="scenarios/competition/fcd.xml"/>
        <queue-output value="scenarios/competition/queue_output.xml"/>
        <summary-output value="scenarios/competition/summary.xml"/>
        <tripinfo-output value="scenarios/competition/tripinfo.xml"/>
    </output>

    <time>
        <begin value="0"/>
        <end value="3600"/>
        <step-length value="1"/>
    </time>

    <processing>
        <ignore-route-errors value="true"/>
        <time-to-teleport value="300"/>
        <max-depart-delay value="900"/>
    </processing>

    <routing>
        <routing-algorithm value="dijkstra"/>
        <device.rerouting.probability value="0.3"/>
        <device.rerouting.period value="300"/>
        <device.rerouting.pre-period value="300"/>
    </routing>

    <report>
        <verbose value="true"/>
        <no-warnings value="true"/>
        <duration-log.statistics value="true"/>
        <no-step-log value="true"/>
    </report>

    <random_number>
        <seed value="42"/>
    </random_number>

    <gui_only>
        <gui-settings-file value="scenarios/competition/gui_settings.cfg"/>
        <quit-on-end value="true"/>
        <start value="true"/>
    </gui_only>

</sumoConfiguration>
-->

<queue-export xmlns:xsi="http://www.w3.org/2001/XMLSchema-instance" xsi:noNamespaceSchemaLocation="http://sumo.dlr.de/xsd/queue_file.xsd">
    <data timestep="0.00">
        <lanes/>
    </data>
    <data timestep="1.00">
        <lanes/>
    </data>
    <data timestep="2.00">
        <lanes/>
    </data>
    <data timestep="3.00">
        <lanes/>
    </data>
    <data timestep="4.00">
        <lanes/>
    </data>
    <data timestep="5.00">
        <lanes/>
    </data>
    <data timestep="6.00">
        <lanes/>
    </data>
    <data timestep="7.00">
        <lanes/>
    </data>
    <data timestep="8.00">
        <lanes/>
    </data>
    <data timestep="9.00">
        <lanes/>
    </data>
    <data timestep="10.00">
        <lanes/>
    </data>
    <data timestep="11.00">
        <lanes/>
    </data>
    <data timestep="12.00">
        <lanes/>
    </data>
    <data timestep="13.00">
        <lanes/>
    </data>
    <data timestep="14.00">
        <lanes/>
    </data>
    <data timestep="15.00">
        <lanes/>
    </data>
    <data timestep="16.00">
        <lanes/>
    </data>
    <data timestep="17.00">
        <lanes/>
    </data>
    <data timestep="18.00">
        <lanes/>
    </data>
    <data timestep="19.00">
        <lanes>
            <lane id="E3_0" queueing_time="0.00" queueing_length="0.00" queueing_length_experimental="6.04"/>
        </lanes>
    </data>
    <data timestep="20.00">
        <lanes>
            <lane id="-E4_0" queueing_time="1.00" queueing_length="6.00" queueing_length_experimental="6.00"/>
            <lane id="E3_0" queueing_time="1.00" queueing_length="6.00" queueing_length_experimental="6.00"/>
        </lanes>
    </data>
    <data timestep="21.00">
        <lanes>
            <lane id="-E4_0" queueing_time="2.00" queueing_length="6.00" queueing_length_experimental="13.75"/>
            <lane id="-E6_0" queueing_time="0.00" queueing_length="0.00" queueing_length_experimental="6.48"/>
            <lane id="E3_0" queueing_time="2.00" queueing_length="6.00" queueing_length_experimental="13.51"/>
            <lane id="E5_0" queueing_time="0.00" queueing_length="0.00" queueing_length_experimental="6.09"/>
        </lanes>
    </data>
    <data timestep="22.00">
        <lanes>
            <lane id="-E4_0" queueing_time="3.00" queueing_length="6.00" queueing_length_experimental="13.58"/>
            <lane id="-E6_0" queueing_time="0.00" queueing_length="0.00" queueing_length_experimental="6.17"/>
            <lane id="E3_0" queueing_time="3.00" queueing_length="13.50" queueing_length_experimental="13.50"/>
            <lane id="E5_0" queueing_time="1.00" queueing_length="6.01" queueing_length_experimental="6.01"/>
        </lanes>
    </data>
    <data timestep="23.00">
        <lanes>
            <lane id="-E4_0" queueing_time="4.00" queueing_length="13.51" queueing_length_experimental="13.51"/>
            <lane id="-E6_0" queueing_time="1.00" queueing_length="6.07" queueing_length_experimental="13.68"/>
            <lane id="E3_0" queueing_time="4.00" queueing_length="13.50" queueing_length_experimental="13.50"/>
            <lane id="E5_0" queueing_time="2.00" queueing_length="6.00" queueing_length_experimental="6.00"/>
        </lanes>
    </data>
    <data timestep="24.00">
        <lanes>
            <lane id="-E4_0" queueing_time="5.00" queueing_length="13.51" queueing_length_experimental="13.51"/>
            <lane id="-E6_0" queueing_time="1.00" queueing_length="13.62" queueing_length_experimental="13.62"/>
            <lane id="E3_0" queueing_time="5.00" queueing_length="13.50" queueing_length_experimental="13.50"/>
            <lane id="E5_0" queueing_time="1.00" queueing_length="13.51" queueing_length_experimental="13.51"/>
        </lanes>
    </data>
    <data timestep="25.00">
        <lanes>
            <lane id="-E4_0" queueing_time="6.00" queueing_length="13.50" queueing_length_experimental="13.50"/>
            <lane id="E3_0" queueing_time="6.00" queueing_length="13.50" queueing_length_experimental="13.50"/>
            <lane id="E3_1" queueing_time="0.00" queueing_length="0.00" queueing_length_experimental="6.07"/>
        </lanes>
    </data>
    <data timestep="26.00">
        <lanes>
            <lane id="-E4_0" queueing_time="7.00" queueing_length="13.50" queueing_length_experimental="13.50"/>
            <lane id="E3_0" queueing_time="7.00" queueing_length="13.50" queueing_length_experimental="13.50"/>
            <lane id="E3_1" queueing_time="1.00" queueing_length="6.01" queueing_length_experimental="6.01"/>
        </lanes>
    </data>
    <data timestep="27.00">
        <lanes>
            <lane id="-E4_0" queueing_time="5.00" queueing_length="13.50" queueing_length_experimental="13.50"/>
            <lane id="E3_0" queueing_time="6.00" queueing_length="13.50" queueing_length_experimental="13.50"/>
        </lanes>
    </data>
    <data timestep="28.00">
        <lanes>
            <lane id="-E6_0" queueing_time="0.00" queueing_length="0.00" queueing_length_experimental="5.13"/>
            <lane id="E3_0" queueing_time="0.00" queueing_length="0.00" queueing_length_experimental="12.14"/>
        </lanes>
    </data>
    <data timestep="29.00">
        <lanes>
            <lane id="-E6_0" queueing_time="0.00" queueing_length="0.00" queueing_length_experimental="5.03"/>
        </lanes>
    </data>
    <data timestep="30.00">
        <lanes>
            <lane id="-E2_0" queueing_time="0.00" queueing_length="0.00" queueing_length_experimental="6.12"/>
            <lane id="-E6_0" queueing_time="1.00" queueing_length="5.01" queueing_length_experimental="5.01"/>
        </lanes>
    </data>
    <data timestep="31.00">
        <lanes>
            <lane id="-E2_0" queueing_time="0.00" queueing_length="0.00" queueing_length_experimental="6.00"/>
            <lane id="-E6_0" queueing_time="2.00" queueing_length="5.01" queueing_length_experimental="5.01"/>
            <lane id="E1_0" queueing_time="0.00" queueing_length="0.00" queueing_length_experimental="6.29"/>
        </lanes>
    </data>
    <data timestep="32.00">
        <lanes>
            <lane id="-E2_0" queueing_time="1.00" queueing_length="6.00" queueing_length_experimental="6.00"/>
            <lane id="-E6_0" queueing_time="3.00" queueing_length="5.00" queueing_length_experimental="5.00"/>
            <lane id="E1_0" queueing_time="0.00" queueing_length="0.00" queueing_length_experimental="6.01"/>
        </lanes>
    </data>
    <data timestep="33.00">
        <lanes>
            <lane id="-E2_0" queueing_time="2.00" queueing_length="6.00" queueing_length_experimental="6.00"/>
            <lane id="-E6_0" queueing_time="4.00" queueing_length="5.00" queueing_length_experimental="5.00"/>
            <lane id="E1_0" queueing_time="1.00" queueing_length="6.00" queueing_length_experimental="6.00"/>
        </lanes>
    </data>
    <data timestep="34.00">
        <lanes>
            <lane id="-E2_0" queueing_time="3.00" queueing_length="6.00" queueing_length_experimental="6.00"/>
            <lane id="-E6_0" queueing_time="5.00" queueing_length="5.00" queueing_length_experimental="5.00"/>
            <lane id="E1_0" queueing_time="2.00" queueing_length="6.00" queueing_length_experimental="6.00"/>
        </lanes>
    </data>
    <data timestep="35.00">
        <lanes>
            <lane id="-E2_0" queueing_time="4.00" queueing_length="6.00" queueing_length_experimental="6.00"/>
            <lane id="-E6_0" queueing_time="6.00" queueing_length="5.00" queueing_length_experimental="5.00"/>
            <lane id="E1_0" queueing_time="3.00" queueing_length="6.00" queueing_length_experimental="6.00"/>
        </lanes>
    </data>
    <data timestep="36.00">
        <lanes>
            <lane id="-E2_0" queueing_time="5.00" queueing_length="6.00" queueing_length_experimental="6.00"/>
            <lane id="-E6_0" queueing_time="7.00" queueing_length="5.00" queueing_length_experimental="5.00"/>
            <lane id="E1_0" queueing_time="4.00" queueing_length="6.00" queueing_length_experimental="6.00"/>
        </lanes>
    </data>
    <data timestep="37.00">
        <lanes>
            <lane id="-E2_0" queueing_time="6.00" queueing_length="6.00" queueing_length_experimental="6.00"/>
            <lane id="-E6_0" queueing_time="8.00" queueing_length="5.00" queueing_length_experimental="5.00"/>
            <lane id="E1_0" queueing_time="5.00" queueing_length="6.00" queueing_length_experimental="6.00"/>
        </lanes>
    </data>
    <data timestep="38.00">
        <lanes>
            <lane id="-E2_0" queueing_time="7.00" queueing_length="6.00" queueing_length_experimental="6.00"/>
            <lane id="-E6_0" queueing_time="9.00" queueing_length="5.00" queueing_length_experimental="5.00"/>
            <lane id="E1_0" queueing_time="6.00" queueing_length="6.00" queueing_length_experimental="6.00"/>
        </lanes>
    </data>
    <data timestep="39.00">
        <lanes>
            <lane id="-E2_0" queueing_time="8.00" queueing_length="6.00" queueing_length_experimental="6.00"/>
            <lane id="-E6_0" queueing_time="10.00" queueing_length="5.00" queueing_length_experimental="5.00"/>
            <lane id="E1_0" queueing_time="7.00" queueing_length="6.00" queueing_length_experimental="6.00"/>
        </lanes>
    </data>
    <data timestep="40.00">
        <lanes>
            <lane id="-E2_0" queueing_time="9.00" queueing_length="6.00" queueing_length_experimental="6.00"/>
            <lane id="-E6_0" queueing_time="11.00" queueing_length="5.00" queueing_length_experimental="5.00"/>
            <lane id="E1_0" queueing_time="8.00" queueing_length="6.00" queueing_length_experimental="6.00"/>
            <lane id="E1_1" queueing_time="0.00" queueing_length="0.00" queueing_length_experimental="6.28"/>
        </lanes>
    </data>
    <data timestep="41.00">
        <lanes>
            <lane id="-E2_0" queueing_time="10.00" queueing_length="6.00" queueing_length_experimental="6.00"/>
            <lane id="-E6_0" queueing_time="12.00" queueing_length="5.00" queueing_length_experimental="5.00"/>
            <lane id="E1_0" queueing_time="9.00" queueing_length="6.00" queueing_length_experimental="6.00"/>
            <lane id="E1_1" queueing_time="0.00" queueing_length="0.00" queueing_length_experimental="6.09"/>
        </lanes>
    </data>
    <data timestep="42.00">
        <lanes>
            <lane id="-E2_0" queueing_time="11.00" queueing_length="6.00" queueing_length_experimental="6.00"/>
            <lane id="-E2_1" queueing_time="0.00" queueing_length="0.00" queueing_length_experimental="6.29"/>
            <lane id="-E6_0" queueing_time="13.00" queueing_length="5.00" queueing_length_experimental="5.00"/>
            <lane id="E1_0" queueing_time="10.00" queueing_length="6.00" queueing_length_experimental="6.00"/>
            <lane id="E1_1" queueing_time="1.00" queueing_length="6.01" queueing_length_experimental="6.01"/>
        </lanes>
    </data>
    <data timestep="43.00">
        <lanes>
            <lane id="-E2_0" queueing_time="12.00" queueing_length="6.00" queueing_length_experimental="6.00"/>
            <lane id="-E2_1" queueing_time="0.00" queueing_length="0.00" queueing_length_experimental="6.14"/>
            <lane id="-E6_0" queueing_time="14.00" queueing_length="5.00" queueing_length_experimental="5.00"/>
            <lane id="E1_0" queueing_time="11.00" queueing_length="6.00" queueing_length_experimental="6.00"/>
            <lane id="E1_1" queueing_time="2.00" queueing_length="6.00" queueing_length_experimental="6.00"/>
        </lanes>
    </data>
    <data timestep="44.00">
        <lanes>
            <lane id="-E2_0" queueing_time="13.00" queueing_length="6.00" queueing_length_experimental="6.00"/>
            <lane id="-E2_1" queueing_time="0.00" queueing_length="0.00" queueing_length_experimental="6.03"/>
            <lane id="-E6_0" queueing_time="15.00" queueing_length="5.00" queueing_length_experimental="5.00"/>
            <lane id="E1_0" queueing_time="12.00" queueing_length="6.00" queueing_length_experimental="6.00"/>
            <lane id="E1_1" queueing_time="3.00" queueing_length="6.00" queueing_length_experimental="6.00"/>
        </lanes>
    </data>
    <data timestep="45.00">
        <lanes>
            <lane id="-E2_0" queueing_time="14.00" queueing_length="6.00" queueing_length_experimental="6.00"/>
            <lane id="-E2_1" queueing_time="1.00" queueing_length="6.01" queueing_length_experimental="6.01"/>
            <lane id="-E6_0" queueing_time="16.00" queueing_length="5.00" queueing_length_experimental="5.00"/>
            <lane id="E1_0" queueing_time="13.00" queueing_length="6.00" queueing_length_experimental="6.00"/>
            <lane id="E1_1" queueing_time="4.00" queueing_length="6.00" queueing_length_experimental="6.00"/>
        </lanes>
    </data>
    <data timestep="46.00">
        <lanes>
            <lane id="-E6_0" queueing_time="17.00" queueing_length="5.00" queueing_length_experimental="5.00"/>
        </lanes>
    </data>
    <data timestep="47.00">
        <lanes>
            <lane id="-E6_0" queueing_time="18.00" queueing_length="5.00" queueing_length_experimental="5.00"/>
        </lanes>
    </data>
    <data timestep="48.00">
        <lanes>
            <lane id="-E4_0" queueing_time="0.00" queueing_length="0.00" queueing_length_experimental="6.30"/>
            <lane id="-E6_0" queueing_time="19.00" queueing_length="5.00" queueing_length_experimental="5.00"/>
        </lanes>
    </data>
    <data timestep="49.00">
        <lanes>
            <lane id="-E4_0" queueing_time="0.00" queueing_length="0.00" queueing_length_experimental="6.05"/>
            <lane id="-E6_0" queueing_time="20.00" queueing_length="5.00" queueing_length_experimental="5.00"/>
        </lanes>
    </data>
    <data timestep="50.00">
        <lanes>
            <lane id="-E4_0" queueing_time="1.00" queueing_length="6.02" queueing_length_experimental="6.02"/>
            <lane id="-E6_0" queueing_time="21.00" queueing_length="5.00" queueing_length_experimental="5.00"/>
        </lanes>
    </data>
    <data timestep="51.00">
        <lanes>
            <lane id="-E4_0" queueing_time="2.00" queueing_length="6.00" queueing_length_experimental="6.00"/>
            <lane id="-E4_1" queueing_time="0.00" queueing_length="0.00" queueing_length_experimental="6.00"/>
            <lane id="-E6_0" queueing_time="22.00" queueing_length="5.00" queueing_length_experimental="5.00"/>
        </lanes>
    </data>
    <data timestep="52.00">
        <lanes>
            <lane id="-E4_0" queueing_time="3.00" queueing_length="6.00" queueing_length_experimental="6.00"/>
            <lane id="-E4_1" queueing_time="1.00" queueing_length="6.00" queueing_length_experimental="6.00"/>
            <lane id="-E6_0" queueing_time="23.00" queueing_length="5.00" queueing_length_experimental="5.00"/>
        </lanes>
    </data>
    <data timestep="53.00">
        <lanes>
            <lane id="-E4_0" queueing_time="4.00" queueing_length="6.00" queueing_length_experimental="6.00"/>
            <lane id="-E4_1" queueing_time="2.00" queueing_length="6.00" queueing_length_experimental="6.00"/>
            <lane id="-E6_0" queueing_time="24.00" queueing_length="5.00" queueing_length_experimental="5.00"/>
        </lanes>
    </data>
    <data timestep="54.00">
        <lanes>
            <lane id="-E4_0" queueing_time="5.00" queueing_length="6.00" queueing_length_experimental="6.00"/>
            <lane id="-E4_1" queueing_time="3.00" queueing_length="6.00" queueing_length_experimental="6.00"/>
            <lane id="-E6_0" queueing_time="25.00" queueing_length="5.00" queueing_length_experimental="5.00"/>
        </lanes>
    </data>
    <data timestep="55.00">
        <lanes>
            <lane id="-E4_0" queueing_time="6.00" queueing_length="6.00" queueing_length_experimental="6.00"/>
            <lane id="-E4_1" queueing_time="4.00" queueing_length="6.00" queueing_length_experimental="6.00"/>
            <lane id="-E6_0" queueing_time="26.00" queueing_length="5.00" queueing_length_experimental="5.00"/>
        </lanes>
    </data>
    <data timestep="56.00">
        <lanes>
            <lane id="-E4_0" queueing_time="7.00" queueing_length="6.00" queueing_length_experimental="6.00"/>
            <lane id="-E4_1" queueing_time="5.00" queueing_length="6.00" queueing_length_experimental="6.00"/>
            <lane id="-E6_0" queueing_time="27.00" queueing_length="5.00" queueing_length_experimental="5.00"/>
            <lane id="E3_0" queueing_time="1.00" queueing_length="6.00" queueing_length_experimental="6.00"/>
            <lane id="E5_0" queueing_time="0.00" queueing_length="0.00" queueing_length_experimental="6.05"/>
        </lanes>
    </data>
    <data timestep="57.00">
        <lanes>
            <lane id="-E4_0" queueing_time="8.00" queueing_length="6.00" queueing_length_experimental="6.00"/>
            <lane id="-E4_1" queueing_time="6.00" queueing_length="6.00" queueing_length_experimental="6.00"/>
            <lane id="-E6_0" queueing_time="28.00" queueing_length="5.00" queueing_length_experimental="5.00"/>
            <lane id="E3_0" queueing_time="2.00" queueing_length="6.00" queueing_length_experimental="6.00"/>
            <lane id="E5_0" queueing_time="1.00" queueing_length="6.00" queueing_length_experimental="6.00"/>
        </lanes>
    </data>
    <data timestep="58.00">
        <lanes>
            <lane id="-E4_0" queueing_time="9.00" queueing_length="6.00" queueing_length_experimental="6.00"/>
            <lane id="-E4_1" queueing_time="7.00" queueing_length="6.00" queueing_length_experimental="6.00"/>
            <lane id="-E6_0" queueing_time="29.00" queueing_length="5.00" queueing_length_experimental="5.00"/>
            <lane id="E3_0" queueing_time="3.00" queueing_length="6.00" queueing_length_experimental="6.00"/>
            <lane id="E5_0" queueing_time="2.00" queueing_length="6.00" queueing_length_experimental="6.00"/>
        </lanes>
    </data>
    <data timestep="59.00">
        <lanes>
            <lane id="-E4_0" queueing_time="10.00" queueing_length="6.00" queueing_length_experimental="6.00"/>
            <lane id="-E4_1" queueing_time="8.00" queueing_length="6.00" queueing_length_experimental="6.00"/>
            <lane id="-E6_0" queueing_time="30.00" queueing_length="5.00" queueing_length_experimental="5.00"/>
            <lane id="E3_0" queueing_time="4.00" queueing_length="6.00" queueing_length_experimental="6.00"/>
            <lane id="E5_0" queueing_time="3.00" queueing_length="6.00" queueing_length_experimental="6.00"/>
        </lanes>
    </data>
    <data timestep="60.00">
        <lanes>
            <lane id="-E4_0" queueing_time="11.00" queueing_length="6.00" queueing_length_experimental="6.00"/>
            <lane id="-E4_1" queueing_time="9.00" queueing_length="6.00" queueing_length_experimental="6.00"/>
            <lane id="-E6_0" queueing_time="31.00" queueing_length="5.00" queueing_length_experimental="5.00"/>
            <lane id="E3_0" queueing_time="5.00" queueing_length="6.00" queueing_length_experimental="6.00"/>
        </lanes>
    </data>
    <data timestep="61.00">
        <lanes>
            <lane id="-E6_0" queueing_time="32.00" queueing_length="5.00" queueing_length_experimental="5.00"/>
            <lane id="E1_0" queueing_time="0.00" queueing_length="0.00" queueing_length_experimental="6.07"/>
        </lanes>
    </data>
    <data timestep="62.00">
        <lanes>
            <lane id="-E6_0" queueing_time="33.00" queueing_length="5.00" queueing_length_experimental="5.00"/>
            <lane id="E1_0" queueing_time="1.00" queueing_length="6.01" queueing_length_experimental="6.01"/>
        </lanes>
    </data>
    <data timestep="63.00">
        <lanes>
            <lane id="-E6_0" queueing_time="34.00" queueing_length="5.00" queueing_length_experimental="5.00"/>
            <lane id="E1_0" queueing_time="0.00" queueing_length="0.00" queueing_length_experimental="5.41"/>
        </lanes>
    </data>
    <data timestep="64.00">
        <lanes>
            <lane id="-E6_0" queueing_time="35.00" queueing_length="5.00" queueing_length_experimental="5.00"/>
        </lanes>
    </data>
    <data timestep="65.00">
        <lanes>
            <lane id=":J_cross_18_0" queueing_time="0.00" queueing_length="0.00" queueing_length_experimental="5.13"/>
            <lane id="-E6_0" queueing_time="36.00" queueing_length="5.00" queueing_length_experimental="5.00"/>
        </lanes>
    </data>
    <data timestep="66.00">
        <lanes>
            <lane id=":J_cross_18_0" queueing_time="1.00" queueing_length="5.11" queueing_length_experimental="5.11"/>
            <lane id="-E6_0" queueing_time="37.00" queueing_length="5.00" queueing_length_experimental="5.00"/>
        </lanes>
    </data>
    <data timestep="67.00">
        <lanes>
            <lane id=":J_cross_18_0" queueing_time="2.00" queueing_length="5.11" queueing_length_experimental="5.11"/>
            <lane id="-E6_0" queueing_time="38.00" queueing_length="5.00" queueing_length_experimental="5.00"/>
        </lanes>
    </data>
    <data timestep="68.00">
        <lanes>
            <lane id=":J_cross_18_0" queueing_time="3.00" queueing_length="5.10" queueing_length_experimental="5.10"/>
            <lane id="-E6_0" queueing_time="39.00" queueing_length="5.00" queueing_length_experimental="5.00"/>
        </lanes>
    </data>
    <data timestep="69.00">
        <lanes>
            <lane id="-E6_0" queueing_time="40.00" queueing_length="5.00" queueing_length_experimental="5.00"/>
        </lanes>
    </data>
    <data timestep="70.00">
        <lanes>
            <lane id="-E6_0" queueing_time="41.00" queueing_length="5.00" queueing_length_experimental="5.00"/>
            <lane id="E1_0" queueing_time="0.00" queueing_length="0.00" queueing_length_experimental="6.09"/>
        </lanes>
    </data>
    <data timestep="71.00">
        <lanes>
            <lane id=":J_cross_1_0" queueing_time="0.00" queueing_length="0.00" queueing_length_experimental="19.39"/>
            <lane id="-E6_0" queueing_time="42.00" queueing_length="5.00" queueing_length_experimental="5.00"/>
            <lane id="E1_0" queueing_time="1.00" queueing_length="6.05" queueing_length_experimental="6.05"/>
        </lanes>
    </data>
    <data timestep="72.00">
        <lanes>
            <lane id="-E6_0" queueing_time="43.00" queueing_length="5.00" queueing_length_experimental="5.00"/>
            <lane id="E1_0" queueing_time="2.00" queueing_length="6.01" queueing_length_experimental="6.01"/>
        </lanes>
    </data>
    <data timestep="73.00">
        <lanes>
            <lane id="-E6_0" queueing_time="44.00" queueing_length="5.00" queueing_length_experimental="5.00"/>
            <lane id="E1_0" queueing_time="3.00" queueing_length="6.00" queueing_length_experimental="6.00"/>
        </lanes>
    </data>
    <data timestep="74.00">
        <lanes>
            <lane id="-E2_0" queueing_time="0.00" queueing_length="0.00" queueing_length_experimental="6.67"/>
            <lane id="-E6_0" queueing_time="45.00" queueing_length="5.00" queueing_length_experimental="5.00"/>
            <lane id="E1_0" queueing_time="4.00" queueing_length="6.00" queueing_length_experimental="6.00"/>
        </lanes>
    </data>
    <data timestep="75.00">
        <lanes>
            <lane id="-E2_0" queueing_time="0.00" queueing_length="0.00" queueing_length_experimental="6.10"/>
            <lane id="-E6_0" queueing_time="46.00" queueing_length="5.00" queueing_length_experimental="5.00"/>
            <lane id="E1_0" queueing_time="5.00" queueing_length="6.00" queueing_length_experimental="6.00"/>
        </lanes>
    </data>
    <data timestep="76.00">
        <lanes>
            <lane id="-E2_0" queueing_time="1.00" queueing_length="6.01" queueing_length_experimental="6.01"/>
            <lane id="-E6_0" queueing_time="47.00" queueing_length="5.00" queueing_length_experimental="5.00"/>
            <lane id="E1_0" queueing_time="6.00" queueing_length="6.00" queueing_length_experimental="6.00"/>
        </lanes>
    </data>
    <data timestep="77.00">
        <lanes>
            <lane id="-E2_0" queueing_time="2.00" queueing_length="6.00" queueing_length_experimental="6.00"/>
            <lane id="-E6_0" queueing_time="48.00" queueing_length="5.00" queueing_length_experimental="5.00"/>
            <lane id="E1_0" queueing_time="7.00" queueing_length="6.00" queueing_length_experimental="6.00"/>
        </lanes>
    </data>
    <data timestep="78.00">
        <lanes>
            <lane id="-E2_0" queueing_time="3.00" queueing_length="6.00" queueing_length_experimental="6.00"/>
            <lane id="-E6_0" queueing_time="49.00" queueing_length="5.00" queueing_length_experimental="5.00"/>
            <lane id="E1_0" queueing_time="8.00" queueing_length="6.00" queueing_length_experimental="6.00"/>
        </lanes>
    </data>
    <data timestep="79.00">
        <lanes>
            <lane id="-E2_0" queueing_time="4.00" queueing_length="6.00" queueing_length_experimental="6.00"/>
            <lane id="-E2_1" queueing_time="0.00" queueing_length="0.00" queueing_length_experimental="6.03"/>
            <lane id="-E6_0" queueing_time="50.00" queueing_length="5.00" queueing_length_experimental="5.00"/>
            <lane id="E1_0" queueing_time="9.00" queueing_length="6.00" queueing_length_experimental="6.00"/>
        </lanes>
    </data>
    <data timestep="80.00">
        <lanes>
            <lane id="-E2_0" queueing_time="5.00" queueing_length="6.00" queueing_length_experimental="6.00"/>
            <lane id="-E2_1" queueing_time="1.00" queueing_length="6.00" queueing_length_experimental="6.00"/>
            <lane id="-E6_0" queueing_time="51.00" queueing_length="5.00" queueing_length_experimental="5.00"/>
            <lane id="E1_0" queueing_time="10.00" queueing_length="6.00" queueing_length_experimental="6.00"/>
        </lanes>
    </data>
    <data timestep="81.00">
        <lanes>
            <lane id="-E2_0" queueing_time="6.00" queueing_length="6.00" queueing_length_experimental="6.00"/>
            <lane id="-E2_1" queueing_time="2.00" queueing_length="6.00" queueing_length_experimental="6.00"/>
            <lane id="-E6_0" queueing_time="52.00" queueing_length="5.00" queueing_length_experimental="5.00"/>
            <lane id="E1_0" queueing_time="11.00" queueing_length="6.00" queueing_length_experimental="6.00"/>
        </lanes>
    </data>
    <data timestep="82.00">
        <lanes>
            <lane id="-E6_0" queueing_time="53.00" queueing_length="5.00" queueing_length_experimental="5.00"/>
        </lanes>
    </data>
    <data timestep="83.00">
        <lanes>
            <lane id="-E6_0" queueing_time="54.00" queueing_length="5.00" queueing_length_experimental="5.00"/>
        </lanes>
    </data>
    <data timestep="84.00">
        <lanes>
            <lane id=":J_cross_8_0" queueing_time="1.00" queueing_length="5.10" queueing_length_experimental="5.10"/>
            <lane id="-E6_0" queueing_time="55.00" queueing_length="5.00" queueing_length_experimental="5.00"/>
        </lanes>
    </data>
    <data timestep="85.00">
        <lanes>
            <lane id=":J_cross_1_0" queueing_time="1.00" queueing_length="24.36" queueing_length_experimental="0.00"/>
            <lane id=":J_cross_8_0" queueing_time="2.00" queueing_length="5.10" queueing_length_experimental="5.10"/>
            <lane id="-E6_0" queueing_time="56.00" queueing_length="5.00" queueing_length_experimental="5.00"/>
        </lanes>
    </data>
    <data timestep="86.00">
        <lanes>
            <lane id=":J_cross_1_0" queueing_time="2.00" queueing_length="24.32" queueing_length_experimental="0.00"/>
            <lane id="-E2_0" queueing_time="0.00" queueing_length="0.00" queueing_length_experimental="6.07"/>
            <lane id="-E6_0" queueing_time="57.00" queueing_length="5.00" queueing_length_experimental="5.00"/>
        </lanes>
    </data>
    <data timestep="87.00">
        <lanes>
            <lane id="-E2_0" queueing_time="1.00" queueing_length="6.02" queueing_length_experimental="6.02"/>