<?xml version="1.0" encoding="UTF-8"?>

<!-- generated on 2025-07-20 00:37:46 by Eclipse SUMO GUI Version 1.23.1
<sumoConfiguration xmlns:xsi="http://www.w3.org/2001/XMLSchema-instance" xsi:noNamespaceSchemaLocation="http://sumo.dlr.de/xsd/sumoConfiguration.xsd">

    <input>
        <net-file value="scenarios/competition/network.net.xml"/>
        <route-files value="scenarios/competition/routes.rou.xml"/>
        <additional-files value="scenarios/competition/additional.xml"/>
    </input>

    <output>
        <fcd-output value="scenarios/competition/fcd.xml"/>
        <queue-output value="scenarios/competition/queue_output.xml"/>
        <summary-output value="scenarios/competition/summary.xml"/>
        <tripinfo-output value="scenarios/competition/tripinfo.xml"/>
    </output>

    <time>
        <begin value="0"/>
        <end value="3600"/>
        <step-length value="1"/>
    </time>

    <processing>
        <ignore-route-errors value="true"/>
        <time-to-teleport value="300"/>
        <max-depart-delay value="900"/>
    </processing>

    <routing>
        <routing-algorithm value="dijkstra"/>
        <device.rerouting.probability value="0.3"/>
        <device.rerouting.period value="300"/>
        <device.rerouting.pre-period value="300"/>
    </routing>

    <report>
        <verbose value="true"/>
        <duration-log.statistics value="true"/>
        <no-step-log value="true"/>
    </report>

    <traci_server>
        <remote-port value="48699"/>
    </traci_server>

    <random_number>
        <seed value="42"/>
    </random_number>

    <gui_only>
        <gui-settings-file value="scenarios/competition/gui_settings.cfg"/>
        <quit-on-end value="true"/>
        <start value="true"/>
    </gui_only>

</sumoConfiguration>
-->

<queue-export xmlns:xsi="http://www.w3.org/2001/XMLSchema-instance" xsi:noNamespaceSchemaLocation="http://sumo.dlr.de/xsd/queue_file.xsd">
    <data timestep="0.00">
        <lanes/>
    </data>
    <data timestep="1.00">
        <lanes/>
    </data>
    <data timestep="2.00">
        <lanes/>
    </data>
    <data timestep="3.00">
        <lanes/>
    </data>
    <data timestep="4.00">
        <lanes/>
    </data>
    <data timestep="5.00">
        <lanes/>
    </data>
    <data timestep="6.00">
        <lanes/>
    </data>
    <data timestep="7.00">
        <lanes/>
    </data>
    <data timestep="8.00">
        <lanes/>
    </data>
    <data timestep="9.00">
        <lanes/>
    </data>
    <data timestep="10.00">
        <lanes/>
    </data>
    <data timestep="11.00">
        <lanes/>
    </data>
    <data timestep="12.00">
        <lanes/>
    </data>
    <data timestep="13.00">
        <lanes/>
    </data>
    <data timestep="14.00">
        <lanes/>
    </data>
    <data timestep="15.00">
        <lanes/>
    </data>
    <data timestep="16.00">
        <lanes/>
    </data>
    <data timestep="17.00">
        <lanes/>
    </data>
    <data timestep="18.00">
        <lanes/>
    </data>
    <data timestep="19.00">
        <lanes>
            <lane id="-E2_0" queueing_time="1.00" queueing_length="6.00" queueing_length_experimental="6.00"/>
        </lanes>
    </data>
    <data timestep="20.00">
        <lanes>
            <lane id="-E2_0" queueing_time="2.00" queueing_length="6.00" queueing_length_experimental="6.00"/>
            <lane id="E1_0" queueing_time="0.00" queueing_length="0.00" queueing_length_experimental="6.05"/>
        </lanes>
    </data>
    <data timestep="21.00">
        <lanes>
            <lane id="-E2_0" queueing_time="3.00" queueing_length="6.00" queueing_length_experimental="6.00"/>
            <lane id="E1_0" queueing_time="1.00" queueing_length="6.01" queueing_length_experimental="6.01"/>
        </lanes>
    </data>
    <data timestep="22.00">
        <lanes>
            <lane id="-E2_0" queueing_time="4.00" queueing_length="6.00" queueing_length_experimental="6.00"/>
            <lane id="-E2_1" queueing_time="0.00" queueing_length="0.00" queueing_length_experimental="6.06"/>
            <lane id="-E6_0" queueing_time="0.00" queueing_length="0.00" queueing_length_experimental="5.39"/>
            <lane id="E1_0" queueing_time="2.00" queueing_length="6.00" queueing_length_experimental="6.00"/>
            <lane id="E1_1" queueing_time="0.00" queueing_length="0.00" queueing_length_experimental="7.29"/>
        </lanes>
    </data>
    <data timestep="23.00">
        <lanes>
            <lane id="-E2_0" queueing_time="5.00" queueing_length="6.00" queueing_length_experimental="6.00"/>
            <lane id="-E2_1" queueing_time="1.00" queueing_length="6.00" queueing_length_experimental="6.00"/>
            <lane id="-E6_0" queueing_time="0.00" queueing_length="0.00" queueing_length_experimental="5.18"/>
            <lane id="E1_0" queueing_time="3.00" queueing_length="6.00" queueing_length_experimental="6.00"/>
            <lane id="E1_1" queueing_time="0.00" queueing_length="0.00" queueing_length_experimental="6.26"/>
        </lanes>
    </data>
    <data timestep="24.00">
        <lanes>
            <lane id=":J_cross_3_0" queueing_time="0.00" queueing_length="0.00" queueing_length_experimental="5.42"/>
            <lane id="-E2_0" queueing_time="6.00" queueing_length="6.00" queueing_length_experimental="6.00"/>
            <lane id="-E2_1" queueing_time="2.00" queueing_length="6.00" queueing_length_experimental="6.00"/>
            <lane id="-E6_0" queueing_time="0.00" queueing_length="0.00" queueing_length_experimental="5.04"/>
            <lane id="E1_0" queueing_time="4.00" queueing_length="6.00" queueing_length_experimental="6.00"/>
            <lane id="E1_1" queueing_time="0.00" queueing_length="0.00" queueing_length_experimental="6.06"/>
        </lanes>
    </data>
    <data timestep="25.00">
        <lanes>
            <lane id=":J_cross_3_0" queueing_time="0.00" queueing_length="0.00" queueing_length_experimental="5.12"/>
            <lane id="-E2_0" queueing_time="7.00" queueing_length="6.00" queueing_length_experimental="13.51"/>
            <lane id="-E2_1" queueing_time="3.00" queueing_length="6.00" queueing_length_experimental="6.00"/>
            <lane id="-E6_0" queueing_time="1.00" queueing_length="5.02" queueing_length_experimental="5.02"/>
            <lane id="E1_0" queueing_time="5.00" queueing_length="6.00" queueing_length_experimental="13.50"/>
            <lane id="E1_1" queueing_time="1.00" queueing_length="6.03" queueing_length_experimental="6.03"/>
        </lanes>
    </data>
    <data timestep="26.00">
        <lanes>
            <lane id=":J_cross_3_0" queueing_time="1.00" queueing_length="5.10" queueing_length_experimental="5.10"/>
            <lane id="-E2_0" queueing_time="8.00" queueing_length="13.50" queueing_length_experimental="13.50"/>
            <lane id="-E2_1" queueing_time="4.00" queueing_length="6.00" queueing_length_experimental="6.00"/>
            <lane id="-E6_0" queueing_time="2.00" queueing_length="5.00" queueing_length_experimental="5.00"/>
            <lane id="E1_0" queueing_time="6.00" queueing_length="13.50" queueing_length_experimental="13.50"/>
            <lane id="E1_1" queueing_time="2.00" queueing_length="6.01" queueing_length_experimental="6.01"/>
            <lane id="E5_0" queueing_time="1.00" queueing_length="5.01" queueing_length_experimental="5.01"/>
        </lanes>
    </data>
    <data timestep="27.00">
        <lanes>
            <lane id=":J_cross_3_0" queueing_time="2.00" queueing_length="5.10" queueing_length_experimental="5.10"/>
            <lane id="-E2_0" queueing_time="9.00" queueing_length="13.50" queueing_length_experimental="13.50"/>
            <lane id="-E2_1" queueing_time="5.00" queueing_length="6.00" queueing_length_experimental="6.00"/>
            <lane id="-E6_0" queueing_time="3.00" queueing_length="5.00" queueing_length_experimental="5.00"/>
            <lane id="E1_0" queueing_time="7.00" queueing_length="13.50" queueing_length_experimental="13.50"/>
            <lane id="E1_1" queueing_time="3.00" queueing_length="6.00" queueing_length_experimental="6.00"/>
            <lane id="E5_0" queueing_time="2.00" queueing_length="5.01" queueing_length_experimental="5.01"/>
        </lanes>
    </data>
    <data timestep="28.00">
        <lanes>
            <lane id=":J_cross_3_0" queueing_time="3.00" queueing_length="5.10" queueing_length_experimental="5.10"/>
            <lane id="-E2_0" queueing_time="10.00" queueing_length="13.50" queueing_length_experimental="13.50"/>
            <lane id="-E2_1" queueing_time="6.00" queueing_length="6.00" queueing_length_experimental="6.00"/>
            <lane id="-E6_0" queueing_time="4.00" queueing_length="5.00" queueing_length_experimental="5.00"/>
            <lane id="E1_0" queueing_time="8.00" queueing_length="13.50" queueing_length_experimental="13.50"/>
            <lane id="E1_1" queueing_time="4.00" queueing_length="6.00" queueing_length_experimental="6.00"/>
            <lane id="E5_0" queueing_time="3.00" queueing_length="5.00" queueing_length_experimental="5.00"/>
        </lanes>
    </data>
    <data timestep="29.00">
        <lanes>
            <lane id=":J_cross_3_0" queueing_time="4.00" queueing_length="5.10" queueing_length_experimental="5.10"/>
            <lane id="-E2_0" queueing_time="11.00" queueing_length="13.50" queueing_length_experimental="13.50"/>
            <lane id="-E2_1" queueing_time="7.00" queueing_length="6.00" queueing_length_experimental="6.00"/>
            <lane id="-E6_0" queueing_time="5.00" queueing_length="5.00" queueing_length_experimental="5.00"/>
            <lane id="E1_0" queueing_time="9.00" queueing_length="13.50" queueing_length_experimental="13.50"/>
            <lane id="E1_1" queueing_time="5.00" queueing_length="6.00" queueing_length_experimental="6.00"/>
            <lane id="E5_0" queueing_time="4.00" queueing_length="5.00" queueing_length_experimental="5.00"/>
        </lanes>
    </data>
    <data timestep="30.00">
        <lanes>
            <lane id=":J_cross_3_0" queueing_time="5.00" queueing_length="5.10" queueing_length_experimental="5.10"/>
            <lane id="-E2_0" queueing_time="12.00" queueing_length="13.50" queueing_length_experimental="13.50"/>
            <lane id="-E2_1" queueing_time="8.00" queueing_length="6.00" queueing_length_experimental="6.00"/>
            <lane id="-E6_0" queueing_time="6.00" queueing_length="5.00" queueing_length_experimental="5.00"/>
            <lane id="E1_0" queueing_time="10.00" queueing_length="13.50" queueing_length_experimental="13.50"/>
            <lane id="E1_1" queueing_time="6.00" queueing_length="6.00" queueing_length_experimental="13.54"/>
            <lane id="E5_0" queueing_time="5.00" queueing_length="5.00" queueing_length_experimental="5.00"/>
        </lanes>
    </data>
    <data timestep="31.00">
        <lanes>
            <lane id="-E2_0" queueing_time="13.00" queueing_length="13.50" queueing_length_experimental="13.50"/>
            <lane id="-E2_1" queueing_time="9.00" queueing_length="6.00" queueing_length_experimental="13.63"/>
            <lane id="-E6_0" queueing_time="7.00" queueing_length="5.00" queueing_length_experimental="5.00"/>
            <lane id="E1_0" queueing_time="11.00" queueing_length="13.50" queueing_length_experimental="13.50"/>
            <lane id="E1_1" queueing_time="7.00" queueing_length="13.52" queueing_length_experimental="13.52"/>
            <lane id="E5_0" queueing_time="6.00" queueing_length="5.00" queueing_length_experimental="5.00"/>
        </lanes>
    </data>
    <data timestep="32.00">
        <lanes>
            <lane id="-E2_0" queueing_time="7.00" queueing_length="13.50" queueing_length_experimental="13.50"/>
            <lane id="-E2_1" queueing_time="0.00" queueing_length="0.00" queueing_length_experimental="13.52"/>
            <lane id="-E6_0" queueing_time="8.00" queueing_length="5.00" queueing_length_experimental="5.00"/>
            <lane id="E1_0" queueing_time="7.00" queueing_length="13.50" queueing_length_experimental="13.50"/>
            <lane id="E1_1" queueing_time="2.00" queueing_length="13.50" queueing_length_experimental="13.50"/>
            <lane id="E3_0" queueing_time="0.00" queueing_length="0.00" queueing_length_experimental="6.31"/>
            <lane id="E5_0" queueing_time="7.00" queueing_length="5.00" queueing_length_experimental="5.00"/>
        </lanes>
    </data>
    <data timestep="33.00">
        <lanes>
            <lane id="-E2_0" queueing_time="0.00" queueing_length="0.00" queueing_length_experimental="12.95"/>
            <lane id="-E6_0" queueing_time="9.00" queueing_length="5.00" queueing_length_experimental="5.00"/>
            <lane id="E1_0" queueing_time="0.00" queueing_length="0.00" queueing_length_experimental="12.30"/>
            <lane id="E3_0" queueing_time="0.00" queueing_length="0.00" queueing_length_experimental="6.02"/>
            <lane id="E5_0" queueing_time="8.00" queueing_length="5.00" queueing_length_experimental="5.00"/>
        </lanes>
    </data>
    <data timestep="34.00">
        <lanes>
            <lane id=":J_cross_8_0" queueing_time="1.00" queueing_length="5.14" queueing_length_experimental="5.14"/>
            <lane id=":J_cross_18_0" queueing_time="0.00" queueing_length="0.00" queueing_length_experimental="5.19"/>
            <lane id="-E6_0" queueing_time="10.00" queueing_length="5.00" queueing_length_experimental="5.00"/>
            <lane id="E3_0" queueing_time="1.00" queueing_length="6.01" queueing_length_experimental="6.01"/>
            <lane id="E5_0" queueing_time="9.00" queueing_length="5.00" queueing_length_experimental="5.00"/>
        </lanes>
    </data>
    <data timestep="35.00">
        <lanes>
            <lane id=":J_cross_8_0" queueing_time="2.00" queueing_length="5.11" queueing_length_experimental="5.11"/>
            <lane id=":J_cross_18_0" queueing_time="1.00" queueing_length="5.12" queueing_length_experimental="5.12"/>
            <lane id="-E2_1" queueing_time="0.00" queueing_length="0.00" queueing_length_experimental="7.68"/>
            <lane id="-E4_0" queueing_time="1.00" queueing_length="6.01" queueing_length_experimental="6.01"/>
            <lane id="-E6_0" queueing_time="11.00" queueing_length="5.00" queueing_length_experimental="5.00"/>
            <lane id="E1_1" queueing_time="0.00" queueing_length="0.00" queueing_length_experimental="7.91"/>
            <lane id="E3_0" queueing_time="2.00" queueing_length="6.00" queueing_length_experimental="6.00"/>
            <lane id="E5_0" queueing_time="10.00" queueing_length="5.00" queueing_length_experimental="5.00"/>
        </lanes>
    </data>
    <data timestep="36.00">
        <lanes>
            <lane id=":J_cross_8_0" queueing_time="3.00" queueing_length="5.10" queueing_length_experimental="5.10"/>
            <lane id=":J_cross_18_0" queueing_time="2.00" queueing_length="5.10" queueing_length_experimental="5.10"/>
            <lane id="-E2_1" queueing_time="1.00" queueing_length="7.61" queueing_length_experimental="7.61"/>
            <lane id="-E4_0" queueing_time="2.00" queueing_length="6.01" queueing_length_experimental="6.01"/>
            <lane id="-E6_0" queueing_time="12.00" queueing_length="5.00" queueing_length_experimental="5.00"/>
            <lane id="E1_1" queueing_time="0.00" queueing_length="0.00" queueing_length_experimental="7.70"/>
            <lane id="E3_0" queueing_time="3.00" queueing_length="6.00" queueing_length_experimental="6.00"/>
            <lane id="E5_0" queueing_time="11.00" queueing_length="5.00" queueing_length_experimental="5.00"/>
        </lanes>
    </data>
    <data timestep="37.00">
        <lanes>
            <lane id="-E2_1" queueing_time="2.00" queueing_length="7.60" queueing_length_experimental="7.60"/>
            <lane id="-E4_1" queueing_time="3.00" queueing_length="6.00" queueing_length_experimental="6.00"/>
            <lane id="-E6_0" queueing_time="13.00" queueing_length="5.00" queueing_length_experimental="5.00"/>
            <lane id="E1_1" queueing_time="1.00" queueing_length="7.64" queueing_length_experimental="7.64"/>
            <lane id="E3_0" queueing_time="4.00" queueing_length="6.00" queueing_length_experimental="6.00"/>
            <lane id="E3_1" queueing_time="0.00" queueing_length="0.00" queueing_length_experimental="6.02"/>
            <lane id="E5_0" queueing_time="12.00" queueing_length="5.00" queueing_length_experimental="5.00"/>
        </lanes>
    </data>
    <data timestep="38.00">
        <lanes>
            <lane id="-E2_1" queueing_time="0.00" queueing_length="0.00" queueing_length_experimental="6.78"/>
            <lane id="-E4_1" queueing_time="4.00" queueing_length="6.00" queueing_length_experimental="6.00"/>
            <lane id="-E6_0" queueing_time="14.00" queueing_length="5.00" queueing_length_experimental="5.00"/>
            <lane id="E3_0" queueing_time="5.00" queueing_length="6.00" queueing_length_experimental="6.00"/>
            <lane id="E3_1" queueing_time="1.00" queueing_length="6.01" queueing_length_experimental="6.01"/>
            <lane id="E5_0" queueing_time="13.00" queueing_length="5.00" queueing_length_experimental="5.00"/>
        </lanes>
    </data>
    <data timestep="39.00">
        <lanes>
            <lane id="-E2_1" queueing_time="0.00" queueing_length="0.00" queueing_length_experimental="6.02"/>
            <lane id="-E4_1" queueing_time="5.00" queueing_length="6.00" queueing_length_experimental="6.00"/>
            <lane id="-E6_0" queueing_time="15.00" queueing_length="5.00" queueing_length_experimental="5.00"/>
            <lane id="E1_1" queueing_time="0.00" queueing_length="0.00" queueing_length_experimental="6.02"/>
            <lane id="E3_0" queueing_time="6.00" queueing_length="6.00" queueing_length_experimental="6.00"/>
            <lane id="E3_1" queueing_time="2.00" queueing_length="6.01" queueing_length_experimental="6.01"/>
            <lane id="E5_0" queueing_time="14.00" queueing_length="5.00" queueing_length_experimental="5.00"/>
        </lanes>
    </data>
    <data timestep="40.00">
        <lanes>
            <lane id="-E2_1" queueing_time="1.00" queueing_length="6.00" queueing_length_experimental="6.00"/>
            <lane id="-E6_0" queueing_time="16.00" queueing_length="5.00" queueing_length_experimental="5.00"/>
            <lane id="E1_0" queueing_time="0.00" queueing_length="0.00" queueing_length_experimental="6.10"/>
            <lane id="E1_1" queueing_time="1.00" queueing_length="6.00" queueing_length_experimental="6.00"/>
            <lane id="E5_0" queueing_time="15.00" queueing_length="5.00" queueing_length_experimental="5.00"/>
        </lanes>
    </data>
    <data timestep="41.00">
        <lanes>
            <lane id="-E2_1" queueing_time="2.00" queueing_length="6.00" queueing_length_experimental="6.00"/>
            <lane id="-E6_0" queueing_time="17.00" queueing_length="5.00" queueing_length_experimental="5.00"/>
            <lane id="E1_0" queueing_time="1.00" queueing_length="6.05" queueing_length_experimental="6.05"/>
            <lane id="E1_1" queueing_time="2.00" queueing_length="6.00" queueing_length_experimental="6.00"/>
            <lane id="E5_0" queueing_time="16.00" queueing_length="5.00" queueing_length_experimental="5.00"/>
        </lanes>
    </data>
    <data timestep="42.00">
        <lanes>
            <lane id="-E2_0" queueing_time="0.00" queueing_length="0.00" queueing_length_experimental="6.13"/>
            <lane id="-E2_1" queueing_time="3.00" queueing_length="6.00" queueing_length_experimental="6.00"/>
            <lane id="-E6_0" queueing_time="18.00" queueing_length="5.00" queueing_length_experimental="5.00"/>
            <lane id="E1_0" queueing_time="2.00" queueing_length="6.01" queueing_length_experimental="6.01"/>
            <lane id="E1_1" queueing_time="3.00" queueing_length="6.00" queueing_length_experimental="6.00"/>
            <lane id="E5_0" queueing_time="17.00" queueing_length="5.00" queueing_length_experimental="5.00"/>
        </lanes>
    </data>
    <data timestep="43.00">
        <lanes>
            <lane id="-E2_0" queueing_time="0.00" queueing_length="0.00" queueing_length_experimental="6.01"/>
            <lane id="-E2_1" queueing_time="4.00" queueing_length="6.00" queueing_length_experimental="6.00"/>
            <lane id="-E6_0" queueing_time="19.00" queueing_length="5.00" queueing_length_experimental="5.00"/>
            <lane id="E1_0" queueing_time="3.00" queueing_length="6.00" queueing_length_experimental="6.00"/>
            <lane id="E1_1" queueing_time="4.00" queueing_length="6.00" queueing_length_experimental="6.00"/>
            <lane id="E5_0" queueing_time="18.00" queueing_length="5.00" queueing_length_experimental="5.00"/>
        </lanes>
    </data>
    <data timestep="44.00">
        <lanes>
            <lane id="-E2_0" queueing_time="1.00" queueing_length="6.00" queueing_length_experimental="6.00"/>
            <lane id="-E2_1" queueing_time="5.00" queueing_length="6.00" queueing_length_experimental="6.00"/>
            <lane id="-E6_0" queueing_time="20.00" queueing_length="5.00" queueing_length_experimental="5.00"/>
            <lane id="E1_0" queueing_time="4.00" queueing_length="6.00" queueing_length_experimental="6.00"/>
            <lane id="E1_1" queueing_time="5.00" queueing_length="6.00" queueing_length_experimental="6.00"/>
            <lane id="E5_0" queueing_time="19.00" queueing_length="5.00" queueing_length_experimental="5.00"/>
        </lanes>
    </data>
    <data timestep="45.00">
        <lanes>
            <lane id="-E2_0" queueing_time="2.00" queueing_length="6.00" queueing_length_experimental="6.00"/>
            <lane id="-E2_1" queueing_time="6.00" queueing_length="6.00" queueing_length_experimental="6.00"/>
            <lane id="-E6_0" queueing_time="21.00" queueing_length="5.00" queueing_length_experimental="5.00"/>
            <lane id="E1_0" queueing_time="5.00" queueing_length="6.00" queueing_length_experimental="6.00"/>
            <lane id="E1_1" queueing_time="6.00" queueing_length="6.00" queueing_length_experimental="6.00"/>
            <lane id="E5_0" queueing_time="20.00" queueing_length="5.00" queueing_length_experimental="12.53"/>
        </lanes>
    </data>
    <data timestep="46.00">
        <lanes>
            <lane id="-E2_0" queueing_time="3.00" queueing_length="6.00" queueing_length_experimental="6.00"/>
            <lane id="-E2_1" queueing_time="7.00" queueing_length="6.00" queueing_length_experimental="6.00"/>
            <lane id="-E6_0" queueing_time="22.00" queueing_length="5.00" queueing_length_experimental="5.00"/>
            <lane id="E1_0" queueing_time="6.00" queueing_length="6.00" queueing_length_experimental="6.00"/>
            <lane id="E1_1" queueing_time="7.00" queueing_length="6.00" queueing_length_experimental="6.00"/>
            <lane id="E5_0" queueing_time="21.00" queueing_length="12.52" queueing_length_experimental="12.52"/>
        </lanes>
    </data>
    <data timestep="47.00">
        <lanes>
            <lane id="-E2_0" queueing_time="4.00" queueing_length="6.00" queueing_length_experimental="6.00"/>
            <lane id="-E2_1" queueing_time="8.00" queueing_length="6.00" queueing_length_experimental="6.00"/>
            <lane id="-E6_0" queueing_time="23.00" queueing_length="5.00" queueing_length_experimental="5.00"/>
            <lane id="E1_0" queueing_time="7.00" queueing_length="6.00" queueing_length_experimental="6.00"/>
            <lane id="E1_1" queueing_time="8.00" queueing_length="6.00" queueing_length_experimental="6.00"/>
            <lane id="E5_0" queueing_time="22.00" queueing_length="12.51" queueing_length_experimental="12.51"/>
        </lanes>
    </data>
    <data timestep="48.00">
        <lanes>
            <lane id="-E6_0" queueing_time="24.00" queueing_length="5.00" queueing_length_experimental="5.00"/>
            <lane id="E5_0" queueing_time="23.00" queueing_length="12.50" queueing_length_experimental="12.50"/>
        </lanes>
    </data>
    <data timestep="49.00">
        <lanes>
            <lane id="-E6_0" queueing_time="25.00" queueing_length="5.00" queueing_length_experimental="5.00"/>
            <lane id="E5_0" queueing_time="24.00" queueing_length="12.50" queueing_length_experimental="12.50"/>
        </lanes>
    </data>
    <data timestep="50.00">
        <lanes>
            <lane id="-E6_0" queueing_time="26.00" queueing_length="5.00" queueing_length_experimental="5.00"/>
            <lane id="E5_0" queueing_time="25.00" queueing_length="12.50" queueing_length_experimental="12.50"/>
        </lanes>
    </data>
    <data timestep="51.00">
        <lanes>
            <lane id="-E6_0" queueing_time="27.00" queueing_length="5.00" queueing_length_experimental="5.00"/>
            <lane id="E5_0" queueing_time="26.00" queueing_length="12.50" queueing_length_experimental="12.50"/>
        </lanes>
    </data>
    <data timestep="52.00">
        <lanes>
            <lane id="-E6_0" queueing_time="28.00" queueing_length="5.00" queueing_length_experimental="5.00"/>
            <lane id="E3_1" queueing_time="0.00" queueing_length="0.00" queueing_length_experimental="6.07"/>
            <lane id="E5_0" queueing_time="27.00" queueing_length="12.50" queueing_length_experimental="12.50"/>
        </lanes>
    </data>
    <data timestep="53.00">
        <lanes>
            <lane id="-E4_0" queueing_time="0.00" queueing_length="0.00" queueing_length_experimental="6.24"/>
            <lane id="-E4_1" queueing_time="0.00" queueing_length="0.00" queueing_length_experimental="6.19"/>
            <lane id="-E6_0" queueing_time="29.00" queueing_length="5.00" queueing_length_experimental="5.00"/>
            <lane id="E3_1" queueing_time="1.00" queueing_length="6.01" queueing_length_experimental="6.01"/>
            <lane id="E5_0" queueing_time="28.00" queueing_length="12.50" queueing_length_experimental="12.50"/>
        </lanes>
    </data>
    <data timestep="54.00">
        <lanes>
            <lane id="-E4_0" queueing_time="0.00" queueing_length="0.00" queueing_length_experimental="6.01"/>
            <lane id="-E4_1" queueing_time="0.00" queueing_length="0.00" queueing_length_experimental="6.07"/>
            <lane id="-E6_0" queueing_time="30.00" queueing_length="5.00" queueing_length_experimental="5.00"/>
            <lane id="E3_1" queueing_time="2.00" queueing_length="6.00" queueing_length_experimental="6.00"/>
            <lane id="E5_0" queueing_time="29.00" queueing_length="12.50" queueing_length_experimental="12.50"/>
        </lanes>
    </data>
    <data timestep="55.00">
        <lanes>
            <lane id="-E4_0" queueing_time="1.00" queueing_length="6.00" queueing_length_experimental="6.00"/>
            <lane id="-E4_1" queueing_time="1.00" queueing_length="6.02" queueing_length_experimental="6.02"/>
            <lane id="-E6_0" queueing_time="31.00" queueing_length="5.00" queueing_length_experimental="5.00"/>
            <lane id="E3_1" queueing_time="3.00" queueing_length="6.00" queueing_length_experimental="6.00"/>
            <lane id="E5_0" queueing_time="30.00" queueing_length="12.50" queueing_length_experimental="12.50"/>
        </lanes>
    </data>
    <data timestep="56.00">
        <lanes>
            <lane id="-E4_0" queueing_time="2.00" queueing_length="6.00" queueing_length_experimental="6.00"/>
            <lane id="-E4_1" queueing_time="2.00" queueing_length="6.01" queueing_length_experimental="6.01"/>
            <lane id="-E6_0" queueing_time="32.00" queueing_length="5.00" queueing_length_experimental="5.00"/>
            <lane id="E3_0" queueing_time="0.00" queueing_length="0.00" queueing_length_experimental="6.26"/>
            <lane id="E3_1" queueing_time="4.00" queueing_length="6.00" queueing_length_experimental="6.00"/>
            <lane id="E5_0" queueing_time="31.00" queueing_length="12.50" queueing_length_experimental="12.50"/>
        </lanes>
    </data>
    <data timestep="57.00">
        <lanes>
            <lane id="-E4_0" queueing_time="3.00" queueing_length="6.00" queueing_length_experimental="6.00"/>
            <lane id="-E4_1" queueing_time="3.00" queueing_length="6.01" queueing_length_experimental="6.01"/>
            <lane id="-E6_0" queueing_time="33.00" queueing_length="5.00" queueing_length_experimental="5.00"/>
            <lane id="E3_0" queueing_time="0.00" queueing_length="0.00" queueing_length_experimental="6.11"/>
            <lane id="E3_1" queueing_time="5.00" queueing_length="6.00" queueing_length_experimental="6.00"/>
            <lane id="E5_0" queueing_time="32.00" queueing_length="12.50" queueing_length_experimental="12.50"/>
        </lanes>
    </data>
    <data timestep="58.00">
        <lanes>
            <lane id="-E4_0" queueing_time="4.00" queueing_length="6.00" queueing_length_experimental="6.00"/>
            <lane id="-E4_1" queueing_time="4.00" queueing_length="6.00" queueing_length_experimental="6.00"/>
            <lane id="-E6_0" queueing_time="34.00" queueing_length="5.00" queueing_length_experimental="5.00"/>
            <lane id="E3_0" queueing_time="1.00" queueing_length="6.01" queueing_length_experimental="6.01"/>
            <lane id="E3_1" queueing_time="6.00" queueing_length="6.00" queueing_length_experimental="6.00"/>
            <lane id="E5_0" queueing_time="33.00" queueing_length="12.50" queueing_length_experimental="12.50"/>
        </lanes>
    </data>
    <data timestep="59.00">
        <lanes>
            <lane id="-E6_0" queueing_time="35.00" queueing_length="5.00" queueing_length_experimental="5.00"/>
            <lane id="E5_0" queueing_time="34.00" queueing_length="12.50" queueing_length_experimental="12.50"/>
        </lanes>
    </data>
    <data timestep="60.00">
        <lanes>
            <lane id="-E6_0" queueing_time="36.00" queueing_length="5.00" queueing_length_experimental="5.00"/>